                               Psi4 1.1 release

  ==> Input File <==

--------------------------------------------------------------------------
molecule {
0 1
O 0.0 0.0 -0.07117626194871772
H 0.0 -0.89161914868059 0.5598094956415423
H 0.0 0.89161914868059 0.5598094956415423

}

set e_convergence 11
set basis         cc-pVDZ
energy('scf')

--------------------------------------------------------------------------

    Molecular point group: c2v

    Geometry (in Angstrom), charge = 0, multiplicity = 1:

       Center              X                  Y                   Z               Mass
    ------------   -----------------  -----------------  -----------------  -----------------
           O          0.000000000000     0.000000000000    -0.070616691097    15.994914619560
           H          0.000000000000    -0.891619148681     0.560369066493     1.007825032070
           H         -0.000000000000     0.891619148681     0.560369066493     1.007825032070

  Charge       = 0
  Multiplicity = 1
  Basis Set: CC-PVDZ
    Blend: CC-PVDZ
  Basis Set: (CC-PVDZ AUX)
    Blend: CC-PVDZ-JKFIT

    Orbital Energies (a.u.)
    -----------------------

    Doubly Occupied:

       1A1   -20.569669     2A1    -1.276480     1B2    -0.640493
       3A1    -0.532826     1B1    -0.484140

  @DF-RHF Final Energy:   -75.99113271011349

   => Energetics <=

    Nuclear Repulsion Energy =              8.0481059860966706
    One-Electron Energy =                -121.0712599866869681
    Two-Electron Energy =                  37.0320212904768056
    DFT Exchange-Correlation Energy =       0.0000000000000000
    Empirical Dispersion Energy =           0.0000000000000000
    PCM Polarization Energy =               0.0000000000000000
    EFP Energy =                            0.0000000000000000
    Total Energy =                        -75.9911327101134901
*** Psi4 exiting successfully. Buy a developer a beer!
