                               Psi4 1.1 release

  ==> Input File <==

--------------------------------------------------------------------------
molecule {
0 1
O -0.005 0.0 -0.07117626194871772
H 0.0 -0.89161914868059 0.5598094956415423
H 0.0 0.89161914868059 0.5648094956415423

}

set e_convergence 11
set basis         cc-pVDZ
energy('scf')

--------------------------------------------------------------------------

    Molecular point group: cs

    Geometry (in Angstrom), charge = 0, multiplicity = 1:

       Center              X                  Y                   Z               Mass
    ------------   -----------------  -----------------  -----------------  -----------------
           O          0.070898686561    -0.000000000000     0.000000000000    15.994914619560
           H         -0.560106880683    -0.891619148899     0.000000000000     1.007825032070
           H         -0.565106724948     0.891619148899     0.000000000000     1.007825032070

  Charge       = 0
  Multiplicity = 1
  Basis Set: CC-PVDZ
    Blend: CC-PVDZ
  Basis Set: (CC-PVDZ AUX)
    Blend: CC-PVDZ-JKFIT

    Orbital Energies (a.u.)
    -----------------------

    Doubly Occupied:

       1Ap   -20.570061     2Ap    -1.276139     3Ap    -0.639565
       4Ap    -0.532981     1App   -0.484204

  @DF-RHF Final Energy:   -75.99063592255203

   => Energetics <=

    Nuclear Repulsion Energy =              8.0377758572056202
    One-Electron Energy =                -121.0509227023757148
    Two-Electron Energy =                  37.0225109226180678
    DFT Exchange-Correlation Energy =       0.0000000000000000
    Empirical Dispersion Energy =           0.0000000000000000
    PCM Polarization Energy =               0.0000000000000000
    EFP Energy =                            0.0000000000000000
    Total Energy =                        -75.9906359225520305
*** Psi4 exiting successfully. Buy a developer a beer!
