                               Psi4 1.1 release

  ==> Input File <==

--------------------------------------------------------------------------
molecule {
0 1
O 0.005 0.005 -0.07117626194871772
H 0.0 -0.89161914868059 0.5648094956415423
H 0.0 0.89161914868059 0.5648094956415423

}

set e_convergence 11
set basis         cc-pVDZ
energy('scf')

--------------------------------------------------------------------------

    Molecular point group: cs

    Geometry (in Angstrom), charge = 0, multiplicity = 1:

       Center              X                  Y                   Z               Mass
    ------------   -----------------  -----------------  -----------------  -----------------
           O          0.071178465064     0.000559574366     0.000000000000    15.994914619560
           H         -0.564826946751    -0.896059574314     0.000000000000     1.007825032070
           H         -0.564826946751     0.887178723047     0.000000000000     1.007825032070

  Charge       = 0
  Multiplicity = 1
  Basis Set: CC-PVDZ
    Blend: CC-PVDZ
  Basis Set: (CC-PVDZ AUX)
    Blend: CC-PVDZ-JKFIT

    Orbital Energies (a.u.)
    -----------------------

    Doubly Occupied:

       1Ap   -20.570450     2Ap    -1.275810     3Ap    -0.638651
       4Ap    -0.533131     1App   -0.484270

  @DF-RHF Final Energy:   -75.99012789180696

   => Energetics <=

    Nuclear Repulsion Energy =              8.0276088893602502
    One-Electron Energy =                -121.0308480186876210
    Two-Electron Energy =                  37.0131112375204054
    DFT Exchange-Correlation Energy =       0.0000000000000000
    Empirical Dispersion Energy =           0.0000000000000000
    PCM Polarization Energy =               0.0000000000000000
    EFP Energy =                            0.0000000000000000
    Total Energy =                        -75.9901278918069636
*** Psi4 exiting successfully. Buy a developer a beer!
