                               Psi4 1.1 release

  ==> Input File <==

--------------------------------------------------------------------------
molecule {
0 1
O 0.0 0.0 -0.07117626194871772
H 0.0 -0.88661914868059 0.5648094956415423
H 0.0 0.89161914868059 0.5698094956415423

}

set e_convergence 11
set basis         cc-pVDZ
energy('scf')

--------------------------------------------------------------------------

    Molecular point group: cs

    Geometry (in Angstrom), charge = 0, multiplicity = 1:

       Center              X                  Y                   Z               Mass
    ------------   -----------------  -----------------  -----------------  -----------------
           O          0.000279787183     0.071456052647     0.000000000000    15.994914619560
           H          0.886898935864    -0.564529704943     0.000000000000     1.007825032070
           H         -0.891339361497    -0.569529704943     0.000000000000     1.007825032070

  Charge       = 0
  Multiplicity = 1
  Basis Set: CC-PVDZ
    Blend: CC-PVDZ
  Basis Set: (CC-PVDZ AUX)
    Blend: CC-PVDZ-JKFIT

    Orbital Energies (a.u.)
    -----------------------

    Doubly Occupied:

       1Ap   -20.570625     2Ap    -1.276253     3Ap    -0.638452
       4Ap    -0.533913     1App   -0.484467

  @DF-RHF Final Energy:   -75.99052599261361

   => Energetics <=

    Nuclear Repulsion Energy =              8.0326025860612447
    One-Electron Energy =                -121.0388381260755182
    Two-Electron Energy =                  37.0157095474006681
    DFT Exchange-Correlation Energy =       0.0000000000000000
    Empirical Dispersion Energy =           0.0000000000000000
    PCM Polarization Energy =               0.0000000000000000
    EFP Energy =                            0.0000000000000000
    Total Energy =                        -75.9905259926136125
*** Psi4 exiting successfully. Buy a developer a beer!
