                               Psi4 1.1 release

  ==> Input File <==

--------------------------------------------------------------------------
molecule {
0 1
O 0.0 0.0 -0.07617626194871772
H 0.0 -0.89161914868059 0.5648094956415423
H -0.005 0.89161914868059 0.5648094956415423

}

set e_convergence 11
set basis         cc-pVDZ
energy('scf')

--------------------------------------------------------------------------

    Molecular point group: cs

    Geometry (in Angstrom), charge = 0, multiplicity = 1:

       Center              X                  Y                   Z               Mass
    ------------   -----------------  -----------------  -----------------  -----------------
           O          0.071736385447    -0.000000000000     0.000000000000    15.994914619560
           H         -0.569244496896    -0.891622653480     0.000000000000     1.007825032070
           H         -0.569263997961     0.891622653480     0.000000000000     1.007825032070

  Charge       = 0
  Multiplicity = 1
  Basis Set: CC-PVDZ
    Blend: CC-PVDZ
  Basis Set: (CC-PVDZ AUX)
    Blend: CC-PVDZ-JKFIT

    Orbital Energies (a.u.)
    -----------------------

    Doubly Occupied:

       1Ap   -20.571225     2Ap    -1.275122     3Ap    -0.636813
       4Ap    -0.533434     1App   -0.484396

  @DF-RHF Final Energy:   -75.98913130030647

   => Energetics <=

    Nuclear Repulsion Energy =              8.0070744247638075
    One-Electron Energy =                -120.9904304376166806
    Two-Electron Energy =                  36.9942247125464121
    DFT Exchange-Correlation Energy =       0.0000000000000000
    Empirical Dispersion Energy =           0.0000000000000000
    PCM Polarization Energy =               0.0000000000000000
    EFP Energy =                            0.0000000000000000
    Total Energy =                        -75.9891313003064681
*** Psi4 exiting successfully. Buy a developer a beer!
