                               Psi4 1.1 release

  ==> Input File <==

--------------------------------------------------------------------------
molecule {
0 1
O 0.0 0.0 -0.07117626194871772
H 0.0 -0.89161914868059 0.5698094956415423
H 0.0 0.89661914868059 0.5648094956415423

}

set e_convergence 11
set basis         cc-pVDZ
energy('scf')

--------------------------------------------------------------------------

    Molecular point group: cs

    Geometry (in Angstrom), charge = 0, multiplicity = 1:

       Center              X                  Y                   Z               Mass
    ------------   -----------------  -----------------  -----------------  -----------------
           O          0.000279787183     0.071456052647     0.000000000000    15.994914619560
           H          0.891898935864    -0.569529704943     0.000000000000     1.007825032070
           H         -0.896339361497    -0.564529704943     0.000000000000     1.007825032070

  Charge       = 0
  Multiplicity = 1
  Basis Set: CC-PVDZ
    Blend: CC-PVDZ
  Basis Set: (CC-PVDZ AUX)
    Blend: CC-PVDZ-JKFIT

    Orbital Energies (a.u.)
    -----------------------

    Doubly Occupied:

       1Ap   -20.571046     2Ap    -1.274684     3Ap    -0.637018
       4Ap    -0.532655     1App   -0.484198

  @DF-RHF Final Energy:   -75.98873947231053

   => Energetics <=

    Nuclear Repulsion Energy =              8.0022047607066806
    One-Electron Energy =                -120.9826858992409484
    Two-Electron Energy =                  36.9917416662237315
    DFT Exchange-Correlation Energy =       0.0000000000000000
    Empirical Dispersion Energy =           0.0000000000000000
    PCM Polarization Energy =               0.0000000000000000
    EFP Energy =                            0.0000000000000000
    Total Energy =                        -75.9887394723105416
*** Psi4 exiting successfully. Buy a developer a beer!
