                               Psi4 1.1 release

  ==> Input File <==

--------------------------------------------------------------------------
molecule {
0 1
O 0.0 0.0 -0.07117626194871772
H 0.0 -0.89161914868059 0.5648094956415423
H 0.0 0.88661914868059 0.5598094956415423

}

set e_convergence 11
set basis         cc-pVDZ
energy('scf')

--------------------------------------------------------------------------

    Molecular point group: cs

    Geometry (in Angstrom), charge = 0, multiplicity = 1:

       Center              X                  Y                   Z               Mass
    ------------   -----------------  -----------------  -----------------  -----------------
           O         -0.000279787183     0.070896478281     0.000000000000    15.994914619560
           H          0.891339361497    -0.565089279310     0.000000000000     1.007825032070
           H         -0.886898935864    -0.560089279310     0.000000000000     1.007825032070

  Charge       = 0
  Multiplicity = 1
  Basis Set: CC-PVDZ
    Blend: CC-PVDZ
  Basis Set: (CC-PVDZ AUX)
    Blend: CC-PVDZ-JKFIT

    Orbital Energies (a.u.)
    -----------------------

    Doubly Occupied:

       1Ap   -20.569847     2Ap    -1.276939     3Ap    -0.640300
       4Ap    -0.533609     1App   -0.484342

  @DF-RHF Final Energy:   -75.99152221101879

   => Energetics <=

    Nuclear Repulsion Energy =              8.0532131232146114
    One-Electron Energy =                -121.0793957204943467
    Two-Electron Energy =                  37.0346603862609385
    DFT Exchange-Correlation Energy =       0.0000000000000000
    Empirical Dispersion Energy =           0.0000000000000000
    PCM Polarization Energy =               0.0000000000000000
    EFP Energy =                            0.0000000000000000
    Total Energy =                        -75.9915222110187898
*** Psi4 exiting successfully. Buy a developer a beer!
