                               Psi4 1.1 release

  ==> Input File <==

--------------------------------------------------------------------------
molecule {
0 1
O 0.0 -0.005 -0.07617626194871772
H 0.0 -0.89161914868059 0.5648094956415423
H 0.0 0.89161914868059 0.5648094956415423

}

set e_convergence 11
set basis         cc-pVDZ
energy('scf')

--------------------------------------------------------------------------

    Molecular point group: cs

    Geometry (in Angstrom), charge = 0, multiplicity = 1:

       Center              X                  Y                   Z               Mass
    ------------   -----------------  -----------------  -----------------  -----------------
           O          0.000559574366     0.071735839830     0.000000000000    15.994914619560
           H          0.887178723047    -0.569249917760     0.000000000000     1.007825032070
           H         -0.896059574314    -0.569249917760     0.000000000000     1.007825032070

  Charge       = 0
  Multiplicity = 1
  Basis Set: CC-PVDZ
    Blend: CC-PVDZ
  Basis Set: (CC-PVDZ AUX)
    Blend: CC-PVDZ-JKFIT

    Orbital Energies (a.u.)
    -----------------------

    Doubly Occupied:

       1Ap   -20.571224     2Ap    -1.275135     3Ap    -0.636822
       4Ap    -0.533430     1App   -0.484398

  @DF-RHF Final Energy:   -75.98912000995998

   => Energetics <=

    Nuclear Repulsion Energy =              8.0071937077722151
    One-Electron Energy =                -120.9906081956964954
    Two-Electron Energy =                  36.9942944779643099
    DFT Exchange-Correlation Energy =       0.0000000000000000
    Empirical Dispersion Energy =           0.0000000000000000
    PCM Polarization Energy =               0.0000000000000000
    EFP Energy =                            0.0000000000000000
    Total Energy =                        -75.9891200099599757
*** Psi4 exiting successfully. Buy a developer a beer!
