                               Psi4 1.1 release

  ==> Input File <==

--------------------------------------------------------------------------
molecule {
0 1
O 0.0 0.005 -0.07117626194871772
H 0.0 -0.89161914868059 0.5648094956415423
H 0.0 0.89161914868059 0.5698094956415423

}

set e_convergence 11
set basis         cc-pVDZ
energy('scf')

--------------------------------------------------------------------------

    Molecular point group: cs

    Geometry (in Angstrom), charge = 0, multiplicity = 1:

       Center              X                  Y                   Z               Mass
    ------------   -----------------  -----------------  -----------------  -----------------
           O         -0.000559574366     0.071456052647     0.000000000000    15.994914619560
           H          0.896059574314    -0.564529704943     0.000000000000     1.007825032070
           H         -0.887178723047    -0.569529704943     0.000000000000     1.007825032070

  Charge       = 0
  Multiplicity = 1
  Basis Set: CC-PVDZ
    Blend: CC-PVDZ
  Basis Set: (CC-PVDZ AUX)
    Blend: CC-PVDZ-JKFIT

    Orbital Energies (a.u.)
    -----------------------

    Doubly Occupied:

       1Ap   -20.570838     2Ap    -1.275465     3Ap    -0.637731
       4Ap    -0.533284     1App   -0.484333

  @DF-RHF Final Energy:   -75.98963351065197

   => Energetics <=

    Nuclear Repulsion Energy =              8.0173264587170490
    One-Electron Energy =                -121.0106212121587959
    Two-Electron Energy =                  37.0036612427897822
    DFT Exchange-Correlation Energy =       0.0000000000000000
    Empirical Dispersion Energy =           0.0000000000000000
    PCM Polarization Energy =               0.0000000000000000
    EFP Energy =                            0.0000000000000000
    Total Energy =                        -75.9896335106519700
*** Psi4 exiting successfully. Buy a developer a beer!
