                               Psi4 1.1 release

  ==> Input File <==

--------------------------------------------------------------------------
molecule {
0 1
O 0.0 0.0 -0.07117626194871772
H 0.0 -0.88661914868059 0.5648094956415423
H 0.005 0.89161914868059 0.5648094956415423

}

set e_convergence 11
set basis         cc-pVDZ
energy('scf')

--------------------------------------------------------------------------

    Molecular point group: cs

    Geometry (in Angstrom), charge = 0, multiplicity = 1:

       Center              X                  Y                   Z               Mass
    ------------   -----------------  -----------------  -----------------  -----------------
           O          0.071176815366    -0.000279788289     0.000000000000    15.994914619560
           H         -0.564804056242    -0.886902441741     0.000000000000     1.007825032070
           H         -0.564823655355     0.891342884927     0.000000000000     1.007825032070

  Charge       = 0
  Multiplicity = 1
  Basis Set: CC-PVDZ
    Blend: CC-PVDZ
  Basis Set: (CC-PVDZ AUX)
    Blend: CC-PVDZ-JKFIT

    Orbital Energies (a.u.)
    -----------------------

    Doubly Occupied:

       1Ap   -20.570238     2Ap    -1.276588     3Ap    -0.639367
       4Ap    -0.533765     1App   -0.484404

  @DF-RHF Final Energy:   -75.99103119095992

   => Energetics <=

    Nuclear Repulsion Energy =              8.0428094432243924
    One-Electron Energy =                -121.0589559840800291
    Two-Electron Energy =                  37.0251153498956995
    DFT Exchange-Correlation Energy =       0.0000000000000000
    Empirical Dispersion Energy =           0.0000000000000000
    PCM Polarization Energy =               0.0000000000000000
    EFP Energy =                            0.0000000000000000
    Total Energy =                        -75.9910311909599301
*** Psi4 exiting successfully. Buy a developer a beer!
