                               Psi4 1.1 release

  ==> Input File <==

--------------------------------------------------------------------------
molecule {
0 1
O 0.0 0.005 -0.07117626194871772
H 0.0 -0.89161914868059 0.5648094956415423
H 0.005 0.89161914868059 0.5648094956415423

}

set e_convergence 11
set basis         cc-pVDZ
energy('scf')

--------------------------------------------------------------------------

    Molecular point group: cs

    Geometry (in Angstrom), charge = 0, multiplicity = 1:

       Center              X                  Y                   Z               Mass
    ------------   -----------------  -----------------  -----------------  -----------------
           O          0.071176815353     0.000559576566     0.000000000000    15.994914619560
           H         -0.564803973400    -0.896063096567     0.000000000000     1.007825032070
           H         -0.564823737992     0.887182210390     0.000000000000     1.007825032070

  Charge       = 0
  Multiplicity = 1
  Basis Set: CC-PVDZ
    Blend: CC-PVDZ
  Basis Set: (CC-PVDZ AUX)
    Blend: CC-PVDZ-JKFIT

    Orbital Energies (a.u.)
    -----------------------

    Doubly Occupied:

       1Ap   -20.570448     2Ap    -1.275811     3Ap    -0.638655
       4Ap    -0.533129     1App   -0.484270

  @DF-RHF Final Energy:   -75.99012961101671

   => Energetics <=

    Nuclear Repulsion Energy =              8.0276475589227445
    One-Electron Energy =                -121.0309269611421854
    Two-Electron Energy =                  37.0131497912027498
    DFT Exchange-Correlation Energy =       0.0000000000000000
    Empirical Dispersion Energy =           0.0000000000000000
    PCM Polarization Energy =               0.0000000000000000
    EFP Energy =                            0.0000000000000000
    Total Energy =                        -75.9901296110166982
*** Psi4 exiting successfully. Buy a developer a beer!
