                               Psi4 1.1 release

  ==> Input File <==

--------------------------------------------------------------------------
molecule {
0 1
O -0.005 0.0 -0.07617626194871772
H 0.0 -0.89161914868059 0.5648094956415423
H 0.0 0.89161914868059 0.5648094956415423

}

set e_convergence 11
set basis         cc-pVDZ
energy('scf')

--------------------------------------------------------------------------

    Molecular point group: c2v

    Geometry (in Angstrom), charge = 0, multiplicity = 1:

       Center              X                  Y                   Z               Mass
    ------------   -----------------  -----------------  -----------------  -----------------
           O         -0.000000000000     0.000000000000    -0.071738022273    15.994914619560
           H          0.000000000000    -0.891619148681     0.569267236234     1.007825032070
           H         -0.000000000000     0.891619148681     0.569267236234     1.007825032070

  Charge       = 0
  Multiplicity = 1
  Basis Set: CC-PVDZ
    Blend: CC-PVDZ
  Basis Set: (CC-PVDZ AUX)
    Blend: CC-PVDZ-JKFIT

    Orbital Energies (a.u.)
    -----------------------

    Doubly Occupied:

       1A1   -20.571227     2A1    -1.275121     1B2    -0.636809
       3A1    -0.533436     1B1    -0.484396

  @DF-RHF Final Energy:   -75.98912956244892

   => Energetics <=

    Nuclear Repulsion Energy =              8.0070356284599793
    One-Electron Energy =                -120.9903511675266543
    Two-Electron Energy =                  36.9941859766177501
    DFT Exchange-Correlation Energy =       0.0000000000000000
    Empirical Dispersion Energy =           0.0000000000000000
    PCM Polarization Energy =               0.0000000000000000
    EFP Energy =                            0.0000000000000000
    Total Energy =                        -75.9891295624489373
*** Psi4 exiting successfully. Buy a developer a beer!
