                               Psi4 1.1 release

  ==> Input File <==

--------------------------------------------------------------------------
molecule {
0 1
O 0.0 0.0 -0.07617626194871772
H 0.0 -0.89661914868059 0.5648094956415423
H 0.0 0.89161914868059 0.5648094956415423

}

set e_convergence 11
set basis         cc-pVDZ
energy('scf')

--------------------------------------------------------------------------

    Molecular point group: cs

    Geometry (in Angstrom), charge = 0, multiplicity = 1:

       Center              X                  Y                   Z               Mass
    ------------   -----------------  -----------------  -----------------  -----------------
           O         -0.000279787183     0.071735839830     0.000000000000    15.994914619560
           H          0.896339361497    -0.569249917760     0.000000000000     1.007825032070
           H         -0.891898935864    -0.569249917760     0.000000000000     1.007825032070

  Charge       = 0
  Multiplicity = 1
  Basis Set: CC-PVDZ
    Blend: CC-PVDZ
  Basis Set: (CC-PVDZ AUX)
    Blend: CC-PVDZ-JKFIT

    Orbital Energies (a.u.)
    -----------------------

    Doubly Occupied:

       1Ap   -20.571433     2Ap    -1.274354     3Ap    -0.636110
       4Ap    -0.532803     1App   -0.484264

  @DF-RHF Final Energy:   -75.98822795340300

   => Energetics <=

    Nuclear Repulsion Energy =              7.9920720000045433
    One-Electron Energy =                -120.9626703675466359
    Two-Electron Energy =                  36.9823704141390976
    DFT Exchange-Correlation Energy =       0.0000000000000000
    Empirical Dispersion Energy =           0.0000000000000000
    PCM Polarization Energy =               0.0000000000000000
    EFP Energy =                            0.0000000000000000
    Total Energy =                        -75.9882279534029976
*** Psi4 exiting successfully. Buy a developer a beer!
